4 atoms
2 atom types
# Basis vector lengths:
0.000000    3.547286     xlo xhi
0.000000    3.072040     ylo yhi
0.000000    5.382984     zlo zhi
# Tilt factors:
-1.773643 0.000000 0.000000 xy xz yz

Atoms  # atomic

1  2    0.0000000000    0.0000000000    0.0000000000
2  2    0.0000000000    0.0000000000    2.6914918423
3  1   -0.0000000018    2.0480264712    1.3457459211
4  1    1.7736429526    1.0240132341    4.0372377634
